# vtk DataFile Version 2.0
testing
ASCII

DATASET STRUCTURED_POINTS
DIMENSIONS 32 32 1
ORIGIN 0 0 0
SPACING 0.0322581 0.0322581 1

POINT_DATA 1024
SCALARS Density float
LOOKUP_TABLE default
0.221049
0.221049
0.221049
0.221049
0.221049
0.221049
0.221049
0.221049
0.221049
0.221049
0.221049
0.221049
0.221049
0.221049
0.221049
0.221049
0.221049
0.221049
0.221049
0.221049
0.221049
0.221049
0.221049
0.221049
0.221049
0.221049
0.221049
0.221049
0.221049
0.221049
0.221049
0.221049
0.221049
0.221049
0.221049
0.221049
0.221049
0.221049
0.221049
0.221049
0.221049
0.221049
0.221049
0.221049
0.221049
0.221049
0.221049
0.221049
0.221049
0.221049
0.221049
0.221049
0.221049
0.221049
0.221049
0.221049
0.221049
0.221049
0.221049
0.221049
0.221049
0.221049
0.221049
0.221049
0.221049
0.221049
0.221049
0.221049
0.221049
0.221049
0.221049
0.221049
0.221049
0.221049
0.221049
0.221049
0.221049
0.221049
0.221049
0.221049
0.221049
0.221049
0.221049
0.221049
0.221049
0.221049
0.221049
0.221049
0.221049
0.221049
0.221049
0.221049
0.221049
0.221049
0.221049
0.221049
0.221049
0.221049
0.221049
0.221049
0.221049
0.221049
0.221049
0.221049
0.221049
0.221049
0.221049
0.221049
0.221049
0.221049
0.221049
0.221049
0.221049
0.221049
0.221049
0.221049
0.221049
0.221049
0.221049
0.221049
0.221049
0.221049
0.221049
0.221049
0.221049
0.221049
0.221049
0.221049
0.221049
0.221049
0.221049
0.221049
0.221049
0.221049
0.221049
0.221049
0.221049
0.221049
0.221049
0.221049
0.221049
0.221049
0.221049
0.221049
0.221049
0.221049
0.221049
0.221049
0.221049
0.221049
0.221049
0.221049
0.221049
0.221049
0.221049
0.221049
0.221049
0.221049
0.221049
0.221049
0.221049
0.221049
0.221049
0.221049
0.221049
0.221049
0.221049
0.221049
0.221049
0.221049
0.221049
0.221049
0.221049
0.221049
0.221049
0.221049
0.221049
0.221049
0.221049
0.221049
0.221049
0.221049
0.221049
0.221049
0.221049
0.221049
0.221049
0.221049
0.221049
0.221049
0.221049
0.221049
0.221049
0.221049
0.221049
0.221049
0.221049
0.221049
0.221049
0.221049
0.221049
0.221049
0.221049
0.221049
0.221049
0.221049
0.221049
0.221049
0.221049
0.221049
0.221049
0.221049
0.221049
0.221049
0.221049
0.221049
0.221049
0.221049
0.221049
0.221049
0.221049
0.221049
0.221049
0.221049
0.221049
0.221049
0.221049
0.221049
0.221049
0.221049
0.221049
0.221049
0.221049
0.221049
0.221049
0.221049
0.221049
0.221049
0.221049
0.221049
0.221049
0.221049
0.221049
0.221049
0.221049
0.221049
0.221049
0.221049
0.221049
0.221049
0.221049
0.221049
0.221049
0.221049
0.221049
0.221049
0.221049
0.221049
0.221049
0.221049
0.221049
0.221049
0.221049
0.221049
0.221049
0.221049
0.221049
0.221049
0.221049
0.221049
0.221049
0.221049
0.221049
0.221049
0.221049
0.221049
0.221049
0.221049
0.221049
0.221049
0.221049
0.221049
0.221049
0.221049
0.221049
0.221049
0.221049
0.221049
0.221049
0.221049
0.221049
0.221049
0.221049
0.221049
0.221049
0.221049
0.221049
0.221049
0.221049
0.221049
0.221049
0.221049
0.221049
0.221049
0.221049
0.221049
0.221049
0.221049
0.221049
0.221049
0.221049
0.221049
0.221049
0.221049
0.221049
0.221049
0.221049
0.221049
0.221049
0.221049
0.221049
0.221049
0.221049
0.221049
0.221049
0.221049
0.221049
0.221049
0.221049
0.221049
0.221049
0.221049
0.221049
0.221049
0.221049
0.221049
0.221049
0.221049
0.221049
0.221049
0.221049
0.221049
0.221049
0.221049
0.221049
0.221049
0.221049
0.221049
0.221049
0.221049
0.221049
0.221049
0.221049
0.221049
0.221049
0.221049
0.221049
0.221049
0.221049
0.221049
0.221049
0.221049
0.221049
0.221049
0.221049
0.221049
0.221049
0.221049
0.221049
0.221049
0.221049
0.221049
0.221049
0.221049
0.221049
0.221049
0.221049
0.221049
0.221049
0.221049
0.221049
0.221049
0.221049
0.221049
0.221049
0.221049
0.221049
0.221049
0.221049
0.221049
0.221049
0.221049
0.221049
0.221049
0.221049
0.221049
0.221049
0.221049
0.221049
0.221049
0.221049
0.221049
0.221049
0.221049
0.221049
0.221049
0.221049
0.221049
0.221049
0.221049
0.221049
0.221049
0.221049
0.221049
0.221049
0.221049
0.221049
0.221049
0.221049
0.221049
0.221049
0.221049
0.221049
0.221049
0.221049
0.221049
0.221049
0.221049
0.221049
0.221049
0.221049
0.221049
0.221049
0.221049
0.221049
0.221049
0.221049
0.221049
0.221049
0.221049
0.221049
0.221049
0.221049
0.221049
0.221049
0.221049
0.221049
0.221049
0.221049
0.221049
0.221049
0.221049
0.221049
0.221049
0.221049
0.221049
0.221049
0.221049
0.221049
0.221049
0.221049
0.221049
0.221049
0.221049
0.221049
0.221049
0.221049
0.221049
0.221049
0.221049
0.221049
0.221049
0.221049
0.221049
0.221049
0.221049
0.221049
0.221049
0.221049
0.221049
0.221049
0.221049
0.221049
0.221049
0.221049
0.221049
0.221049
0.221049
0.221049
0.221049
0.221049
0.221049
0.221049
0.221049
0.221049
0.221049
0.221049
0.221049
0.221049
0.221049
0.221049
0.221049
0.221049
0.221049
0.221049
0.221049
0.221049
0.221049
0.221049
0.221049
0.221049
0.221049
0.221049
0.221049
0.221049
0.221049
0.221049
0.221049
0.221049
0.221049
0.221049
0.221049
0.221049
0.221049
0.221049
0.221049
0.221049
0.221049
0.221049
0.221049
0.221049
0.221049
0.221049
0.221049
0.221049
0.221049
0.221049
0.221049
0.221049
0.221049
0.221049
0.221049
0.221049
0.221049
0.221049
0.221049
0.221049
0.221049
0.221049
0.221049
0.221049
0.221049
0.221049
0.221049
0.221049
0.221049
0.221049
0.221049
0.221049
0.221049
0.221049
0.221049
0.221049
0.221049
0.221049
0.221049
0.221049
0.221049
0.221049
0.221049
0.221049
0.221049
0.221049
0.221049
0.221049
0.221049
0.221049
0.221049
0.221049
0.221049
0.221049
0.221049
0.221049
0.221049
0.221049
0.221049
0.221049
0.221049
0.221049
0.221049
0.221049
0.221049
0.221049
0.221049
0.221049
0.221049
0.221049
0.221049
0.221049
0.221049
0.221049
0.221049
0.221049
0.221049
0.221049
0.221049
0.221049
0.221049
0.221049
0.221049
0.221049
0.221049
0.221049
0.221049
0.221049
0.221049
0.221049
0.221049
0.221049
0.221049
0.221049
0.221049
0.221049
0.221049
0.221049
0.221049
0.221049
0.221049
0.221049
0.221049
0.221049
0.221049
0.221049
0.221049
0.221049
0.221049
0.221049
0.221049
0.221049
0.221049
0.221049
0.221049
0.221049
0.221049
0.221049
0.221049
0.221049
0.221049
0.221049
0.221049
0.221049
0.221049
0.221049
0.221049
0.221049
0.221049
0.221049
0.221049
0.221049
0.221049
0.221049
0.221049
0.221049
0.221049
0.221049
0.221049
0.221049
0.221049
0.221049
0.221049
0.221049
0.221049
0.221049
0.221049
0.221049
0.221049
0.221049
0.221049
0.221049
0.221049
0.221049
0.221049
0.221049
0.221049
0.221049
0.221049
0.221049
0.221049
0.221049
0.221049
0.221049
0.221049
0.221049
0.221049
0.221049
0.221049
0.221049
0.221049
0.221049
0.221049
0.221049
0.221049
0.221049
0.221049
0.221049
0.221049
0.221049
0.221049
0.221049
0.221049
0.221049
0.221049
0.221049
0.221049
0.221049
0.221049
0.221049
0.221049
0.221049
0.221049
0.221049
0.221049
0.221049
0.221049
0.221049
0.221049
0.221049
0.221049
0.221049
0.221049
0.221049
0.221049
0.221049
0.221049
0.221049
0.221049
0.221049
0.221049
0.221049
0.221049
0.221049
0.221049
0.221049
0.221049
0.221049
0.221049
0.221049
0.221049
0.221049
0.221049
0.221049
0.221049
0.221049
0.221049
0.221049
0.221049
0.221049
0.221049
0.221049
0.221049
0.221049
0.221049
0.221049
0.221049
0.221049
0.221049
0.221049
0.221049
0.221049
0.221049
0.221049
0.221049
0.221049
0.221049
0.221049
0.221049
0.221049
0.221049
0.221049
0.221049
0.221049
0.221049
0.221049
0.221049
0.221049
0.221049
0.221049
0.221049
0.221049
0.221049
0.221049
0.221049
0.221049
0.221049
0.221049
0.221049
0.221049
0.221049
0.221049
0.221049
0.221049
0.221049
0.221049
0.221049
0.221049
0.221049
0.221049
0.221049
0.221049
0.221049
0.221049
0.221049
0.221049
0.221049
0.221049
0.221049
0.221049
0.221049
0.221049
0.221049
0.221049
0.221049
0.221049
0.221049
0.221049
0.221049
0.221049
0.221049
0.221049
0.221049
0.221049
0.221049
0.221049
0.221049
0.221049
0.221049
0.221049
0.221049
0.221049
0.221049
0.221049
0.221049
0.221049
0.221049
0.221049
0.221049
0.221049
0.221049
0.221049
0.221049
0.221049
0.221049
0.221049
0.221049
0.221049
0.221049
0.221049
0.221049
0.221049
0.221049
0.221049
0.221049
0.221049
0.221049
0.221049
0.221049
0.221049
0.221049
0.221049
0.221049
0.221049
0.221049
0.221049
0.221049
0.221049
0.221049
0.221049
0.221049
0.221049
0.221049
0.221049
0.221049
0.221049
0.221049
0.221049
0.221049
0.221049
0.221049
0.221049
0.221049
0.221049
0.221049
0.221049
0.221049
0.221049
0.221049
0.221049
0.221049
0.221049
0.221049
0.221049
0.221049
0.221049
0.221049
0.221049
0.221049
0.221049
0.221049
0.221049
0.221049
0.221049
0.221049
0.221049
0.221049
0.221049
0.221049
0.221049
0.221049
0.221049
0.221049
0.221049
0.221049
0.221049
0.221049
0.221049
0.221049
0.221049
0.221049
0.221049
0.221049
0.221049
0.221049
0.221049
0.221049
0.221049
0.221049
0.221049
0.221049
0.221049
0.221049
0.221049
0.221049
0.221049
0.221049
0.221049
0.221049
0.221049
0.221049
0.221049
0.221049
0.221049
0.221049
0.221049
0.221049
0.221049
0.221049
0.221049
0.221049
0.221049
0.221049
0.221049
0.221049
0.221049
0.221049
0.221049
0.221049
0.221049
0.221049
0.221049
0.221049
0.221049
0.221049
0.221049
0.221049
0.221049
0.221049
0.221049
0.221049
0.221049
0.221049
0.221049
0.221049
0.221049
0.221049
0.221049
0.221049
0.221049
0.221049
0.221049
0.221049
0.221049
0.221049
0.221049
0.221049
0.221049
0.221049
0.221049
0.221049
0.221049
0.221049
0.221049
0.221049
0.221049
0.221049
0.221049
0.221049
0.221049
0.221049
0.221049
0.221049
0.221049
0.221049
0.221049
0.221049
0.221049
0.221049
0.221049
0.221049
0.221049
0.221049
0.221049
0.221049
0.221049
0.221049

VECTORS Velocity_vector float
-0.394356 0 0
-0.394356 0.201299 0
-0.394356 0.394356 0
-0.394356 0.571268 0
-0.394356 0.724793 0
-0.394356 0.848644 0
-0.394356 0.937752 0
-0.394356 0.988468 0
-0.394356 0.998717 0
-0.394356 0.968077 0
-0.394356 0.897805 0
-0.394356 0.790776 0
-0.394356 0.651372 0
-0.394356 0.485302 0
-0.394356 0.299363 0
-0.394356 0.101168 0
-0.394356 -0.101168 0
-0.394356 -0.299363 0
-0.394356 -0.485302 0
-0.394356 -0.651372 0
-0.394356 -0.790776 0
-0.394356 -0.897805 0
-0.394356 -0.968077 0
-0.394356 -0.998717 0
-0.394356 -0.988468 0
-0.394356 -0.937752 0
-0.394356 -0.848644 0
-0.394356 -0.724793 0
-0.394356 -0.571268 0
-0.394356 -0.394356 0
-0.394356 -0.201299 0
-0.394356 -2.44929e-16 0
-0.571268 0 0
-0.571268 0.201299 0
-0.571268 0.394356 0
-0.571268 0.571268 0
-0.571268 0.724793 0
-0.571268 0.848644 0
-0.571268 0.937752 0
-0.571268 0.988468 0
-0.571268 0.998717 0
-0.571268 0.968077 0
-0.571268 0.897805 0
-0.571268 0.790776 0
-0.571268 0.651372 0
-0.571268 0.485302 0
-0.571268 0.299363 0
-0.571268 0.101168 0
-0.571268 -0.101168 0
-0.571268 -0.299363 0
-0.571268 -0.485302 0
-0.571268 -0.651372 0
-0.571268 -0.790776 0
-0.571268 -0.897805 0
-0.571268 -0.968077 0
-0.571268 -0.998717 0
-0.571268 -0.988468 0
-0.571268 -0.937752 0
-0.571268 -0.848644 0
-0.571268 -0.724793 0
-0.571268 -0.571268 0
-0.571268 -0.394356 0
-0.571268 -0.201299 0
-0.571268 -2.44929e-16 0
-0.724793 0 0
-0.724793 0.201299 0
-0.724793 0.394356 0
-0.724793 0.571268 0
-0.724793 0.724793 0
-0.724793 0.848644 0
-0.724793 0.937752 0
-0.724793 0.988468 0
-0.724793 0.998717 0
-0.724793 0.968077 0
-0.724793 0.897805 0
-0.724793 0.790776 0
-0.724793 0.651372 0
-0.724793 0.485302 0
-0.724793 0.299363 0
-0.724793 0.101168 0
-0.724793 -0.101168 0
-0.724793 -0.299363 0
-0.724793 -0.485302 0
-0.724793 -0.651372 0
-0.724793 -0.790776 0
-0.724793 -0.897805 0
-0.724793 -0.968077 0
-0.724793 -0.998717 0
-0.724793 -0.988468 0
-0.724793 -0.937752 0
-0.724793 -0.848644 0
-0.724793 -0.724793 0
-0.724793 -0.571268 0
-0.724793 -0.394356 0
-0.724793 -0.201299 0
-0.724793 -2.44929e-16 0
-0.848644 0 0
-0.848644 0.201299 0
-0.848644 0.394356 0
-0.848644 0.571268 0
-0.848644 0.724793 0
-0.848644 0.848644 0
-0.848644 0.937752 0
-0.848644 0.988468 0
-0.848644 0.998717 0
-0.848644 0.968077 0
-0.848644 0.897805 0
-0.848644 0.790776 0
-0.848644 0.651372 0
-0.848644 0.485302 0
-0.848644 0.299363 0
-0.848644 0.101168 0
-0.848644 -0.101168 0
-0.848644 -0.299363 0
-0.848644 -0.485302 0
-0.848644 -0.651372 0
-0.848644 -0.790776 0
-0.848644 -0.897805 0
-0.848644 -0.968077 0
-0.848644 -0.998717 0
-0.848644 -0.988468 0
-0.848644 -0.937752 0
-0.848644 -0.848644 0
-0.848644 -0.724793 0
-0.848644 -0.571268 0
-0.848644 -0.394356 0
-0.848644 -0.201299 0
-0.848644 -2.44929e-16 0
-0.937752 0 0
-0.937752 0.201299 0
-0.937752 0.394356 0
-0.937752 0.571268 0
-0.937752 0.724793 0
-0.937752 0.848644 0
-0.937752 0.937752 0
-0.937752 0.988468 0
-0.937752 0.998717 0
-0.937752 0.968077 0
-0.937752 0.897805 0
-0.937752 0.790776 0
-0.937752 0.651372 0
-0.937752 0.485302 0
-0.937752 0.299363 0
-0.937752 0.101168 0
-0.937752 -0.101168 0
-0.937752 -0.299363 0
-0.937752 -0.485302 0
-0.937752 -0.651372 0
-0.937752 -0.790776 0
-0.937752 -0.897805 0
-0.937752 -0.968077 0
-0.937752 -0.998717 0
-0.937752 -0.988468 0
-0.937752 -0.937752 0
-0.937752 -0.848644 0
-0.937752 -0.724793 0
-0.937752 -0.571268 0
-0.937752 -0.394356 0
-0.937752 -0.201299 0
-0.937752 -2.44929e-16 0
-0.988468 0 0
-0.988468 0.201299 0
-0.988468 0.394356 0
-0.988468 0.571268 0
-0.988468 0.724793 0
-0.988468 0.848644 0
-0.988468 0.937752 0
-0.988468 0.988468 0
-0.988468 0.998717 0
-0.988468 0.968077 0
-0.988468 0.897805 0
-0.988468 0.790776 0
-0.988468 0.651372 0
-0.988468 0.485302 0
-0.988468 0.299363 0
-0.988468 0.101168 0
-0.988468 -0.101168 0
-0.988468 -0.299363 0
-0.988468 -0.485302 0
-0.988468 -0.651372 0
-0.988468 -0.790776 0
-0.988468 -0.897805 0
-0.988468 -0.968077 0
-0.988468 -0.998717 0
-0.988468 -0.988468 0
-0.988468 -0.937752 0
-0.988468 -0.848644 0
-0.988468 -0.724793 0
-0.988468 -0.571268 0
-0.988468 -0.394356 0
-0.988468 -0.201299 0
-0.988468 -2.44929e-16 0
-0.998717 0 0
-0.998717 0.201299 0
-0.998717 0.394356 0
-0.998717 0.571268 0
-0.998717 0.724793 0
-0.998717 0.848644 0
-0.998717 0.937752 0
-0.998717 0.988468 0
-0.998717 0.998717 0
-0.998717 0.968077 0
-0.998717 0.897805 0
-0.998717 0.790776 0
-0.998717 0.651372 0
-0.998717 0.485302 0
-0.998717 0.299363 0
-0.998717 0.101168 0
-0.998717 -0.101168 0
-0.998717 -0.299363 0
-0.998717 -0.485302 0
-0.998717 -0.651372 0
-0.998717 -0.790776 0
-0.998717 -0.897805 0
-0.998717 -0.968077 0
-0.998717 -0.998717 0
-0.998717 -0.988468 0
-0.998717 -0.937752 0
-0.998717 -0.848644 0
-0.998717 -0.724793 0
-0.998717 -0.571268 0
-0.998717 -0.394356 0
-0.998717 -0.201299 0
-0.998717 -2.44929e-16 0
-0.968077 0 0
-0.968077 0.201299 0
-0.968077 0.394356 0
-0.968077 0.571268 0
-0.968077 0.724793 0
-0.968077 0.848644 0
-0.968077 0.937752 0
-0.968077 0.988468 0
-0.968077 0.998717 0
-0.968077 0.968077 0
-0.968077 0.897805 0
-0.968077 0.790776 0
-0.968077 0.651372 0
-0.968077 0.485302 0
-0.968077 0.299363 0
-0.968077 0.101168 0
-0.968077 -0.101168 0
-0.968077 -0.299363 0
-0.968077 -0.485302 0
-0.968077 -0.651372 0
-0.968077 -0.790776 0
-0.968077 -0.897805 0
-0.968077 -0.968077 0
-0.968077 -0.998717 0
-0.968077 -0.988468 0
-0.968077 -0.937752 0
-0.968077 -0.848644 0
-0.968077 -0.724793 0
-0.968077 -0.571268 0
-0.968077 -0.394356 0
-0.968077 -0.201299 0
-0.968077 -2.44929e-16 0
-0.897805 0 0
-0.897805 0.201299 0
-0.897805 0.394356 0
-0.897805 0.571268 0
-0.897805 0.724793 0
-0.897805 0.848644 0
-0.897805 0.937752 0
-0.897805 0.988468 0
-0.897805 0.998717 0
-0.897805 0.968077 0
-0.897805 0.897805 0
-0.897805 0.790776 0
-0.897805 0.651372 0
-0.897805 0.485302 0
-0.897805 0.299363 0
-0.897805 0.101168 0
-0.897805 -0.101168 0
-0.897805 -0.299363 0
-0.897805 -0.485302 0
-0.897805 -0.651372 0
-0.897805 -0.790776 0
-0.897805 -0.897805 0
-0.897805 -0.968077 0
-0.897805 -0.998717 0
-0.897805 -0.988468 0
-0.897805 -0.937752 0
-0.897805 -0.848644 0
-0.897805 -0.724793 0
-0.897805 -0.571268 0
-0.897805 -0.394356 0
-0.897805 -0.201299 0
-0.897805 -2.44929e-16 0
-0.790776 0 0
-0.790776 0.201299 0
-0.790776 0.394356 0
-0.790776 0.571268 0
-0.790776 0.724793 0
-0.790776 0.848644 0
-0.790776 0.937752 0
-0.790776 0.988468 0
-0.790776 0.998717 0
-0.790776 0.968077 0
-0.790776 0.897805 0
-0.790776 0.790776 0
-0.790776 0.651372 0
-0.790776 0.485302 0
-0.790776 0.299363 0
-0.790776 0.101168 0
-0.790776 -0.101168 0
-0.790776 -0.299363 0
-0.790776 -0.485302 0
-0.790776 -0.651372 0
-0.790776 -0.790776 0
-0.790776 -0.897805 0
-0.790776 -0.968077 0
-0.790776 -0.998717 0
-0.790776 -0.988468 0
-0.790776 -0.937752 0
-0.790776 -0.848644 0
-0.790776 -0.724793 0
-0.790776 -0.571268 0
-0.790776 -0.394356 0
-0.790776 -0.201299 0
-0.790776 -2.44929e-16 0
-0.651372 0 0
-0.651372 0.201299 0
-0.651372 0.394356 0
-0.651372 0.571268 0
-0.651372 0.724793 0
-0.651372 0.848644 0
-0.651372 0.937752 0
-0.651372 0.988468 0
-0.651372 0.998717 0
-0.651372 0.968077 0
-0.651372 0.897805 0
-0.651372 0.790776 0
-0.651372 0.651372 0
-0.651372 0.485302 0
-0.651372 0.299363 0
-0.651372 0.101168 0
-0.651372 -0.101168 0
-0.651372 -0.299363 0
-0.651372 -0.485302 0
-0.651372 -0.651372 0
-0.651372 -0.790776 0
-0.651372 -0.897805 0
-0.651372 -0.968077 0
-0.651372 -0.998717 0
-0.651372 -0.988468 0
-0.651372 -0.937752 0
-0.651372 -0.848644 0
-0.651372 -0.724793 0
-0.651372 -0.571268 0
-0.651372 -0.394356 0
-0.651372 -0.201299 0
-0.651372 -2.44929e-16 0
-0.485302 0 0
-0.485302 0.201299 0
-0.485302 0.394356 0
-0.485302 0.571268 0
-0.485302 0.724793 0
-0.485302 0.848644 0
-0.485302 0.937752 0
-0.485302 0.988468 0
-0.485302 0.998717 0
-0.485302 0.968077 0
-0.485302 0.897805 0
-0.485302 0.790776 0
-0.485302 0.651372 0
-0.485302 0.485302 0
-0.485302 0.299363 0
-0.485302 0.101168 0
-0.485302 -0.101168 0
-0.485302 -0.299363 0
-0.485302 -0.485302 0
-0.485302 -0.651372 0
-0.485302 -0.790776 0
-0.485302 -0.897805 0
-0.485302 -0.968077 0
-0.485302 -0.998717 0
-0.485302 -0.988468 0
-0.485302 -0.937752 0
-0.485302 -0.848644 0
-0.485302 -0.724793 0
-0.485302 -0.571268 0
-0.485302 -0.394356 0
-0.485302 -0.201299 0
-0.485302 -2.44929e-16 0
-0.299363 0 0
-0.299363 0.201299 0
-0.299363 0.394356 0
-0.299363 0.571268 0
-0.299363 0.724793 0
-0.299363 0.848644 0
-0.299363 0.937752 0
-0.299363 0.988468 0
-0.299363 0.998717 0
-0.299363 0.968077 0
-0.299363 0.897805 0
-0.299363 0.790776 0
-0.299363 0.651372 0
-0.299363 0.485302 0
-0.299363 0.299363 0
-0.299363 0.101168 0
-0.299363 -0.101168 0
-0.299363 -0.299363 0
-0.299363 -0.485302 0
-0.299363 -0.651372 0
-0.299363 -0.790776 0
-0.299363 -0.897805 0
-0.299363 -0.968077 0
-0.299363 -0.998717 0
-0.299363 -0.988468 0
-0.299363 -0.937752 0
-0.299363 -0.848644 0
-0.299363 -0.724793 0
-0.299363 -0.571268 0
-0.299363 -0.394356 0
-0.299363 -0.201299 0
-0.299363 -2.44929e-16 0
-0.101168 0 0
-0.101168 0.201299 0
-0.101168 0.394356 0
-0.101168 0.571268 0
-0.101168 0.724793 0
-0.101168 0.848644 0
-0.101168 0.937752 0
-0.101168 0.988468 0
-0.101168 0.998717 0
-0.101168 0.968077 0
-0.101168 0.897805 0
-0.101168 0.790776 0
-0.101168 0.651372 0
-0.101168 0.485302 0
-0.101168 0.299363 0
-0.101168 0.101168 0
-0.101168 -0.101168 0
-0.101168 -0.299363 0
-0.101168 -0.485302 0
-0.101168 -0.651372 0
-0.101168 -0.790776 0
-0.101168 -0.897805 0
-0.101168 -0.968077 0
-0.101168 -0.998717 0
-0.101168 -0.988468 0
-0.101168 -0.937752 0
-0.101168 -0.848644 0
-0.101168 -0.724793 0
-0.101168 -0.571268 0
-0.101168 -0.394356 0
-0.101168 -0.201299 0
-0.101168 -2.44929e-16 0
0.101168 0 0
0.101168 0.201299 0
0.101168 0.394356 0
0.101168 0.571268 0
0.101168 0.724793 0
0.101168 0.848644 0
0.101168 0.937752 0
0.101168 0.988468 0
0.101168 0.998717 0
0.101168 0.968077 0
0.101168 0.897805 0
0.101168 0.790776 0
0.101168 0.651372 0
0.101168 0.485302 0
0.101168 0.299363 0
0.101168 0.101168 0
0.101168 -0.101168 0
0.101168 -0.299363 0
0.101168 -0.485302 0
0.101168 -0.651372 0
0.101168 -0.790776 0
0.101168 -0.897805 0
0.101168 -0.968077 0
0.101168 -0.998717 0
0.101168 -0.988468 0
0.101168 -0.937752 0
0.101168 -0.848644 0
0.101168 -0.724793 0
0.101168 -0.571268 0
0.101168 -0.394356 0
0.101168 -0.201299 0
0.101168 -2.44929e-16 0
0.299363 0 0
0.299363 0.201299 0
0.299363 0.394356 0
0.299363 0.571268 0
0.299363 0.724793 0
0.299363 0.848644 0
0.299363 0.937752 0
0.299363 0.988468 0
0.299363 0.998717 0
0.299363 0.968077 0
0.299363 0.897805 0
0.299363 0.790776 0
0.299363 0.651372 0
0.299363 0.485302 0
0.299363 0.299363 0
0.299363 0.101168 0
0.299363 -0.101168 0
0.299363 -0.299363 0
0.299363 -0.485302 0
0.299363 -0.651372 0
0.299363 -0.790776 0
0.299363 -0.897805 0
0.299363 -0.968077 0
0.299363 -0.998717 0
0.299363 -0.988468 0
0.299363 -0.937752 0
0.299363 -0.848644 0
0.299363 -0.724793 0
0.299363 -0.571268 0
0.299363 -0.394356 0
0.299363 -0.201299 0
0.299363 -2.44929e-16 0
0.485302 0 0
0.485302 0.201299 0
0.485302 0.394356 0
0.485302 0.571268 0
0.485302 0.724793 0
0.485302 0.848644 0
0.485302 0.937752 0
0.485302 0.988468 0
0.485302 0.998717 0
0.485302 0.968077 0
0.485302 0.897805 0
0.485302 0.790776 0
0.485302 0.651372 0
0.485302 0.485302 0
0.485302 0.299363 0
0.485302 0.101168 0
0.485302 -0.101168 0
0.485302 -0.299363 0
0.485302 -0.485302 0
0.485302 -0.651372 0
0.485302 -0.790776 0
0.485302 -0.897805 0
0.485302 -0.968077 0
0.485302 -0.998717 0
0.485302 -0.988468 0
0.485302 -0.937752 0
0.485302 -0.848644 0
0.485302 -0.724793 0
0.485302 -0.571268 0
0.485302 -0.394356 0
0.485302 -0.201299 0
0.485302 -2.44929e-16 0
0.651372 0 0
0.651372 0.201299 0
0.651372 0.394356 0
0.651372 0.571268 0
0.651372 0.724793 0
0.651372 0.848644 0
0.651372 0.937752 0
0.651372 0.988468 0
0.651372 0.998717 0
0.651372 0.968077 0
0.651372 0.897805 0
0.651372 0.790776 0
0.651372 0.651372 0
0.651372 0.485302 0
0.651372 0.299363 0
0.651372 0.101168 0
0.651372 -0.101168 0
0.651372 -0.299363 0
0.651372 -0.485302 0
0.651372 -0.651372 0
0.651372 -0.790776 0
0.651372 -0.897805 0
0.651372 -0.968077 0
0.651372 -0.998717 0
0.651372 -0.988468 0
0.651372 -0.937752 0
0.651372 -0.848644 0
0.651372 -0.724793 0
0.651372 -0.571268 0
0.651372 -0.394356 0
0.651372 -0.201299 0
0.651372 -2.44929e-16 0
0.790776 0 0
0.790776 0.201299 0
0.790776 0.394356 0
0.790776 0.571268 0
0.790776 0.724793 0
0.790776 0.848644 0
0.790776 0.937752 0
0.790776 0.988468 0
0.790776 0.998717 0
0.790776 0.968077 0
0.790776 0.897805 0
0.790776 0.790776 0
0.790776 0.651372 0
0.790776 0.485302 0
0.790776 0.299363 0
0.790776 0.101168 0
0.790776 -0.101168 0
0.790776 -0.299363 0
0.790776 -0.485302 0
0.790776 -0.651372 0
0.790776 -0.790776 0
0.790776 -0.897805 0
0.790776 -0.968077 0
0.790776 -0.998717 0
0.790776 -0.988468 0
0.790776 -0.937752 0
0.790776 -0.848644 0
0.790776 -0.724793 0
0.790776 -0.571268 0
0.790776 -0.394356 0
0.790776 -0.201299 0
0.790776 -2.44929e-16 0
0.897805 0 0
0.897805 0.201299 0
0.897805 0.394356 0
0.897805 0.571268 0
0.897805 0.724793 0
0.897805 0.848644 0
0.897805 0.937752 0
0.897805 0.988468 0
0.897805 0.998717 0
0.897805 0.968077 0
0.897805 0.897805 0
0.897805 0.790776 0
0.897805 0.651372 0
0.897805 0.485302 0
0.897805 0.299363 0
0.897805 0.101168 0
0.897805 -0.101168 0
0.897805 -0.299363 0
0.897805 -0.485302 0
0.897805 -0.651372 0
0.897805 -0.790776 0
0.897805 -0.897805 0
0.897805 -0.968077 0
0.897805 -0.998717 0
0.897805 -0.988468 0
0.897805 -0.937752 0
0.897805 -0.848644 0
0.897805 -0.724793 0
0.897805 -0.571268 0
0.897805 -0.394356 0
0.897805 -0.201299 0
0.897805 -2.44929e-16 0
0.968077 0 0
0.968077 0.201299 0
0.968077 0.394356 0
0.968077 0.571268 0
0.968077 0.724793 0
0.968077 0.848644 0
0.968077 0.937752 0
0.968077 0.988468 0
0.968077 0.998717 0
0.968077 0.968077 0
0.968077 0.897805 0
0.968077 0.790776 0
0.968077 0.651372 0
0.968077 0.485302 0
0.968077 0.299363 0
0.968077 0.101168 0
0.968077 -0.101168 0
0.968077 -0.299363 0
0.968077 -0.485302 0
0.968077 -0.651372 0
0.968077 -0.790776 0
0.968077 -0.897805 0
0.968077 -0.968077 0
0.968077 -0.998717 0
0.968077 -0.988468 0
0.968077 -0.937752 0
0.968077 -0.848644 0
0.968077 -0.724793 0
0.968077 -0.571268 0
0.968077 -0.394356 0
0.968077 -0.201299 0
0.968077 -2.44929e-16 0
0.998717 0 0
0.998717 0.201299 0
0.998717 0.394356 0
0.998717 0.571268 0
0.998717 0.724793 0
0.998717 0.848644 0
0.998717 0.937752 0
0.998717 0.988468 0
0.998717 0.998717 0
0.998717 0.968077 0
0.998717 0.897805 0
0.998717 0.790776 0
0.998717 0.651372 0
0.998717 0.485302 0
0.998717 0.299363 0
0.998717 0.101168 0
0.998717 -0.101168 0
0.998717 -0.299363 0
0.998717 -0.485302 0
0.998717 -0.651372 0
0.998717 -0.790776 0
0.998717 -0.897805 0
0.998717 -0.968077 0
0.998717 -0.998717 0
0.998717 -0.988468 0
0.998717 -0.937752 0
0.998717 -0.848644 0
0.998717 -0.724793 0
0.998717 -0.571268 0
0.998717 -0.394356 0
0.998717 -0.201299 0
0.998717 -2.44929e-16 0
0.988468 0 0
0.988468 0.201299 0
0.988468 0.394356 0
0.988468 0.571268 0
0.988468 0.724793 0
0.988468 0.848644 0
0.988468 0.937752 0
0.988468 0.988468 0
0.988468 0.998717 0
0.988468 0.968077 0
0.988468 0.897805 0
0.988468 0.790776 0
0.988468 0.651372 0
0.988468 0.485302 0
0.988468 0.299363 0
0.988468 0.101168 0
0.988468 -0.101168 0
0.988468 -0.299363 0
0.988468 -0.485302 0
0.988468 -0.651372 0
0.988468 -0.790776 0
0.988468 -0.897805 0
0.988468 -0.968077 0
0.988468 -0.998717 0
0.988468 -0.988468 0
0.988468 -0.937752 0
0.988468 -0.848644 0
0.988468 -0.724793 0
0.988468 -0.571268 0
0.988468 -0.394356 0
0.988468 -0.201299 0
0.988468 -2.44929e-16 0
0.937752 0 0
0.937752 0.201299 0
0.937752 0.394356 0
0.937752 0.571268 0
0.937752 0.724793 0
0.937752 0.848644 0
0.937752 0.937752 0
0.937752 0.988468 0
0.937752 0.998717 0
0.937752 0.968077 0
0.937752 0.897805 0
0.937752 0.790776 0
0.937752 0.651372 0
0.937752 0.485302 0
0.937752 0.299363 0
0.937752 0.101168 0
0.937752 -0.101168 0
0.937752 -0.299363 0
0.937752 -0.485302 0
0.937752 -0.651372 0
0.937752 -0.790776 0
0.937752 -0.897805 0
0.937752 -0.968077 0
0.937752 -0.998717 0
0.937752 -0.988468 0
0.937752 -0.937752 0
0.937752 -0.848644 0
0.937752 -0.724793 0
0.937752 -0.571268 0
0.937752 -0.394356 0
0.937752 -0.201299 0
0.937752 -2.44929e-16 0
0.848644 0 0
0.848644 0.201299 0
0.848644 0.394356 0
0.848644 0.571268 0
0.848644 0.724793 0
0.848644 0.848644 0
0.848644 0.937752 0
0.848644 0.988468 0
0.848644 0.998717 0
0.848644 0.968077 0
0.848644 0.897805 0
0.848644 0.790776 0
0.848644 0.651372 0
0.848644 0.485302 0
0.848644 0.299363 0
0.848644 0.101168 0
0.848644 -0.101168 0
0.848644 -0.299363 0
0.848644 -0.485302 0
0.848644 -0.651372 0
0.848644 -0.790776 0
0.848644 -0.897805 0
0.848644 -0.968077 0
0.848644 -0.998717 0
0.848644 -0.988468 0
0.848644 -0.937752 0
0.848644 -0.848644 0
0.848644 -0.724793 0
0.848644 -0.571268 0
0.848644 -0.394356 0
0.848644 -0.201299 0
0.848644 -2.44929e-16 0
0.724793 0 0
0.724793 0.201299 0
0.724793 0.394356 0
0.724793 0.571268 0
0.724793 0.724793 0
0.724793 0.848644 0
0.724793 0.937752 0
0.724793 0.988468 0
0.724793 0.998717 0
0.724793 0.968077 0
0.724793 0.897805 0
0.724793 0.790776 0
0.724793 0.651372 0
0.724793 0.485302 0
0.724793 0.299363 0
0.724793 0.101168 0
0.724793 -0.101168 0
0.724793 -0.299363 0
0.724793 -0.485302 0
0.724793 -0.651372 0
0.724793 -0.790776 0
0.724793 -0.897805 0
0.724793 -0.968077 0
0.724793 -0.998717 0
0.724793 -0.988468 0
0.724793 -0.937752 0
0.724793 -0.848644 0
0.724793 -0.724793 0
0.724793 -0.571268 0
0.724793 -0.394356 0
0.724793 -0.201299 0
0.724793 -2.44929e-16 0
0.571268 0 0
0.571268 0.201299 0
0.571268 0.394356 0
0.571268 0.571268 0
0.571268 0.724793 0
0.571268 0.848644 0
0.571268 0.937752 0
0.571268 0.988468 0
0.571268 0.998717 0
0.571268 0.968077 0
0.571268 0.897805 0
0.571268 0.790776 0
0.571268 0.651372 0
0.571268 0.485302 0
0.571268 0.299363 0
0.571268 0.101168 0
0.571268 -0.101168 0
0.571268 -0.299363 0
0.571268 -0.485302 0
0.571268 -0.651372 0
0.571268 -0.790776 0
0.571268 -0.897805 0
0.571268 -0.968077 0
0.571268 -0.998717 0
0.571268 -0.988468 0
0.571268 -0.937752 0
0.571268 -0.848644 0
0.571268 -0.724793 0
0.571268 -0.571268 0
0.571268 -0.394356 0
0.571268 -0.201299 0
0.571268 -2.44929e-16 0
0.394356 0 0
0.394356 0.201299 0
0.394356 0.394356 0
0.394356 0.571268 0
0.394356 0.724793 0
0.394356 0.848644 0
0.394356 0.937752 0
0.394356 0.988468 0
0.394356 0.998717 0
0.394356 0.968077 0
0.394356 0.897805 0
0.394356 0.790776 0
0.394356 0.651372 0
0.394356 0.485302 0
0.394356 0.299363 0
0.394356 0.101168 0
0.394356 -0.101168 0
0.394356 -0.299363 0
0.394356 -0.485302 0
0.394356 -0.651372 0
0.394356 -0.790776 0
0.394356 -0.897805 0
0.394356 -0.968077 0
0.394356 -0.998717 0
0.394356 -0.988468 0
0.394356 -0.937752 0
0.394356 -0.848644 0
0.394356 -0.724793 0
0.394356 -0.571268 0
0.394356 -0.394356 0
0.394356 -0.201299 0
0.394356 -2.44929e-16 0
0.201299 0 0
0.201299 0.201299 0
0.201299 0.394356 0
0.201299 0.571268 0
0.201299 0.724793 0
0.201299 0.848644 0
0.201299 0.937752 0
0.201299 0.988468 0
0.201299 0.998717 0
0.201299 0.968077 0
0.201299 0.897805 0
0.201299 0.790776 0
0.201299 0.651372 0
0.201299 0.485302 0
0.201299 0.299363 0
0.201299 0.101168 0
0.201299 -0.101168 0
0.201299 -0.299363 0
0.201299 -0.485302 0
0.201299 -0.651372 0
0.201299 -0.790776 0
0.201299 -0.897805 0
0.201299 -0.968077 0
0.201299 -0.998717 0
0.201299 -0.988468 0
0.201299 -0.937752 0
0.201299 -0.848644 0
0.201299 -0.724793 0
0.201299 -0.571268 0
0.201299 -0.394356 0
0.201299 -0.201299 0
0.201299 -2.44929e-16 0
0.201299 0 0
0.201299 0.201299 0
0.201299 0.394356 0
0.201299 0.571268 0
0.201299 0.724793 0
0.201299 0.848644 0
0.201299 0.937752 0
0.201299 0.988468 0
0.201299 0.998717 0
0.201299 0.968077 0
0.201299 0.897805 0
0.201299 0.790776 0
0.201299 0.651372 0
0.201299 0.485302 0
0.201299 0.299363 0
0.201299 0.101168 0
0.201299 -0.101168 0
0.201299 -0.299363 0
0.201299 -0.485302 0
0.201299 -0.651372 0
0.201299 -0.790776 0
0.201299 -0.897805 0
0.201299 -0.968077 0
0.201299 -0.998717 0
0.201299 -0.988468 0
0.201299 -0.937752 0
0.201299 -0.848644 0
0.201299 -0.724793 0
0.201299 -0.571268 0
0.201299 -0.394356 0
0.201299 -0.201299 0
0.201299 -2.44929e-16 0
-0 0 0
-0 0.201299 0
-0 0.394356 0
-0 0.571268 0
-0 0.724793 0
-0 0.848644 0
-0 0.937752 0
-0 0.988468 0
-0 0.998717 0
-0 0.968077 0
-0 0.897805 0
-0 0.790776 0
-0 0.651372 0
-0 0.485302 0
-0 0.299363 0
-0 0.101168 0
-0 -0.101168 0
-0 -0.299363 0
-0 -0.485302 0
-0 -0.651372 0
-0 -0.790776 0
-0 -0.897805 0
-0 -0.968077 0
-0 -0.998717 0
-0 -0.988468 0
-0 -0.937752 0
-0 -0.848644 0
-0 -0.724793 0
-0 -0.571268 0
-0 -0.394356 0
-0 -0.201299 0
-0 -2.44929e-16 0
-0.201299 0 0
-0.201299 0.201299 0
-0.201299 0.394356 0
-0.201299 0.571268 0